ITEM: TIMESTEP
14000
ITEM: NUMBER OF ATOMS
5070
ITEM: BOX BOUNDS ss ss pp
-0.421658 22.1509
-0.614376 22.1931
-1.5183 109.968
ITEM: ATOMS id type x y z c_myPE c_csym 
3 1 1.76468 0.0710838 0.41888 -2.91397 13.7272 
4 1 -0.144101 2.03487 0.121776 -2.86477 18.7028 
8 1 3.54892 1.86981 0.267085 -3.43201 0.688989 
7 1 5.57347 0.0175155 0.264206 -2.96402 14.4592 
12 1 7.05197 2.07197 0.482483 -3.41002 2.0336 
6 1 5.4252 2.01399 109.77 -3.44189 1.13077 
9 1 7.21557 0.141746 109.658 -2.96264 13.2448 
11 1 8.67701 0.140135 0.236763 -3.019 13.0406 
16 1 10.5678 1.89247 0.201116 -3.49949 0.860285 
10 1 8.77696 2.05983 109.879 -3.45915 1.29921 
13 1 10.6648 -0.0437281 109.923 -2.9523 15.389 
15 1 12.6939 -0.0606016 0.223939 -2.93572 17.1911 
14 1 12.5298 1.67054 -1.34432 -3.41491 1.87128 
19 1 16.3068 -0.0804532 0.385877 -3.00562 14.1365 
20 1 14.3702 1.87574 0.400195 -3.3727 0.821022 
17 1 14.5853 0.0300573 109.867 -2.99417 14.6074 
18 1 16.3057 1.75815 109.963 -3.34673 1.19984 
24 1 17.9964 1.87388 0.267012 -3.50131 0.549866 
21 1 17.8995 0.088299 109.837 -3.03846 15.522 
23 1 19.7069 -0.295843 0.221245 -2.85991 20.034 
26 1 21.2577 1.68074 0.333947 -2.97906 14.3916 
29 1 1.90144 3.48153 0.321592 -3.36095 2.19203 
33 1 5.23267 3.75496 0.212617 -3.53236 0.722686 
35 1 7.12215 3.80922 109.845 -3.44537 0.620467 
37 1 8.74013 3.70796 0.252743 -3.43283 0.788354 
41 1 12.5758 3.59673 0.255886 -3.49753 0.358718 
45 1 16.0306 3.66776 0.299591 -3.4786 0.620646 
43 1 14.3718 3.76513 109.845 -3.46557 1.23744 
47 1 17.945 3.72691 -1.4967 -3.50359 0.38616 
49 1 19.7249 3.7693 0.52343 -3.43237 1.08069 
51 1 21.574 3.7309 -1.43457 -2.98599 16.9074 
30 1 0.0648488 5.17022 0.237079 -3.05971 12.1985 
55 1 1.63795 7.29232 0.486153 -3.39693 1.43591 
34 1 3.40062 5.56561 0.279285 -3.51189 1.28358 
38 1 7.23298 5.5335 0.336817 -3.48718 0.918225 
59 1 5.33973 7.36979 0.402318 -3.48019 1.06095 
63 1 9.21626 7.28621 0.274697 -3.45361 2.497 
42 1 10.763 5.28152 0.0882234 -3.48176 2.29933 
67 1 12.3399 7.25423 0.42011 -3.494 2.09967 
65 1 10.8307 7.36753 -1.48522 -3.46312 1.22429 
40 1 12.681 5.44337 -1.38375 -3.45328 1.96422 
46 1 14.3859 5.63113 0.308612 -3.48138 1.2123 
71 1 16.1989 7.23043 0.330147 -3.47061 0.321528 
44 1 16.1443 5.3211 -1.436 -3.44535 0.954716 
50 1 17.8968 5.41976 0.46068 -3.53039 0.352662 
73 1 18.0569 7.22421 -1.45194 -3.50261 0.406824 
75 1 19.8421 7.15192 0.369747 -3.41406 0.752047 
52 1 21.5636 5.38745 0.622825 -2.93544 14.1167 
77 1 21.5932 7.20356 -1.36249 -2.97922 16.9873 
48 1 19.7877 5.52111 -1.44754 -3.45889 0.30954 
56 1 -0.117967 9.11381 0.596385 -2.96344 14.7872 
81 1 1.67324 10.682 0.820263 -3.36363 2.74692 
60 1 3.39689 8.98119 0.380738 -3.52124 0.583054 
64 1 7.06297 8.9373 0.267554 -3.4322 1.02048 
85 1 5.42662 10.6278 0.356714 -3.45151 0.867845 
87 1 7.20212 10.7972 109.668 -3.43889 1.53466 
89 1 8.942 10.8935 0.162724 -3.49133 0.81293 
62 1 8.86586 8.87041 109.897 -3.50657 1.08413 
68 1 10.7498 9.07857 0.331673 -3.43257 0.686909 
93 1 12.6466 10.5874 0.109432 -3.37304 1.66088 
72 1 14.4331 8.87188 0.425631 -3.47939 1.08791 
97 1 16.3086 10.7512 0.280029 -3.50259 0.43536 
70 1 16.1794 8.94453 -1.38284 -3.45609 0.927062 
76 1 18.1564 9.12103 0.446887 -3.51762 0.944365 
99 1 18.0569 10.8122 109.846 -3.47576 1.03163 
78 1 21.6266 8.75492 0.537327 -2.96417 14.6753 
101 1 19.9903 10.6979 0.379387 -3.44816 0.609642 
74 1 19.9557 9.06599 -1.46909 -3.47888 0.767246 
103 1 21.9498 10.7539 -1.29069 -2.91324 17.994 
82 1 -0.0815635 12.5614 0.656982 -2.99069 16.4329 
86 1 3.61867 12.3699 0.552085 -3.48776 1.41778 
90 1 7.09276 12.3271 0.265788 -3.33904 2.03787 
88 1 9.05341 12.6675 109.932 -3.42965 1.02522 
94 1 10.9813 12.5925 0.202891 -3.47899 1.03833 
92 1 12.7147 12.3961 109.892 -3.50052 0.514736 
98 1 14.3488 12.5412 0.182943 -3.4928 0.472346 
102 1 17.9817 12.5938 0.284197 -3.48359 0.986873 
104 1 21.9362 12.5258 0.351636 -2.99537 11.9905 
100 1 19.9743 12.4917 -1.38724 -3.48238 0.48549 
107 1 1.91496 14.2779 0.465259 -3.40955 0.734188 
108 1 0.0409835 16.0283 0.350023 -2.96829 13.9232 
112 1 3.61475 16.1717 0.568638 -3.50761 1.20935 
111 1 5.34114 14.2257 0.387809 -3.54758 0.445041 
116 1 7.26184 16.0429 0.449228 -3.48102 0.516339 
113 1 7.28162 14.1839 -1.37765 -3.46512 1.56042 
110 1 5.46343 16.1836 -1.4249 -3.46474 0.603014 
115 1 9.2466 14.3211 0.351409 -3.43369 1.41302 
114 1 8.9984 16.3401 -1.36143 -3.50264 1.39537 
117 1 10.7523 14.3785 -1.46403 -3.42638 0.663982 
120 1 10.7899 16.1771 0.27681 -3.47146 0.844448 
119 1 12.5905 14.405 0.234489 -3.49113 0.475721 
118 1 12.5743 16.2408 109.924 -3.48102 0.343899 
124 1 14.396 16.1847 0.621804 -3.41308 1.41738 
123 1 16.0997 14.4948 0.403509 -3.46173 0.827056 
121 1 14.2704 14.4076 109.908 -3.4881 0.530118 
122 1 16.0835 16.2697 -1.48134 -3.4843 0.608123 
128 1 17.936 16.24 0.440705 -3.49661 0.557736 
125 1 17.9189 14.421 -1.24183 -3.47116 1.58898 
127 1 20.0303 14.2852 0.273444 -3.44303 0.762071 
130 1 21.8077 16.2335 0.103739 -3.01521 8.44775 
126 1 19.754 16.0632 -1.47114 -3.44245 1.4696 
133 1 1.68052 17.9427 0.502448 -3.40749 1.8206 
135 1 3.80806 17.8989 109.87 -3.42343 2.20677 
137 1 5.63683 17.7701 0.385849 -3.43545 1.09528 
139 1 7.15264 17.912 109.891 -3.424 0.971553 
141 1 9.03438 17.9777 0.584784 -3.43842 1.3804 
145 1 12.7226 17.9833 0.437038 -3.51388 0.589635 
149 1 16.0611 18.0132 0.464586 -3.48576 0.345876 
147 1 14.3711 17.986 -1.34632 -3.4866 0.316431 
151 1 17.7591 18.0057 -1.35494 -3.46492 0.609031 
153 1 19.7867 17.8459 0.557194 -3.41843 1.36523 
155 1 21.6954 18.3013 109.946 -2.95814 8.37669 
134 1 0.0632809 19.8504 0.291648 -2.87139 17.5152 
158 1 1.77562 21.5166 0.548265 -2.8988 18.2575 
138 1 3.77941 19.452 0.26278 -3.49189 2.60879 
132 1 1.80935 19.6635 -1.32811 -3.31067 4.58672 
160 1 5.43518 21.6051 0.156544 -2.95137 15.6338 
142 1 7.34122 19.6851 0.341701 -3.45242 0.511287 
162 1 8.9982 21.6454 0.233294 -2.9879 15.5979 
146 1 10.7128 19.7904 0.397751 -3.43806 0.888101 
163 1 10.7557 21.4662 109.91 -3.03022 14.0682 
164 1 12.3043 21.5872 0.430213 -2.98221 12.3819 
144 1 12.742 19.9439 -1.39311 -3.39976 1.60257 
150 1 14.3531 19.8597 0.489198 -3.43614 0.631503 
166 1 16.3302 21.5073 0.726836 -3.00927 12.5628 
165 1 14.4285 21.7966 -1.00151 -2.88907 14.5313 
148 1 16.0733 19.7915 -1.25382 -3.46128 0.691607 
154 1 17.9677 19.8125 0.540626 -3.41337 0.891308 
167 1 17.7401 21.5606 109.991 -3.0034 13.8571 
168 1 19.5999 21.8985 0.17968 -2.78926 18.7511 
156 1 21.6792 19.4443 0.77821 -2.82272 14.2989 
169 1 21.5117 21.2592 -1.09092 -2.60229 23.7244 
171 1 1.91301 2.13057 2.21495 -3.35157 2.68134 
170 1 -0.118574 0.872973 2.17561 -2.58014 27.2569 
173 1 -0.0297229 2.18362 4.45612 -2.90494 14.9122 
174 1 3.71252 -0.106555 1.94955 -2.88975 16.772 
177 1 3.72431 1.93771 3.96652 -3.40309 0.499837 
175 1 5.26375 1.90233 2.17939 -3.4452 0.799801 
176 1 5.4388 0.166308 4.03234 -2.99698 15.5455 
178 1 7.21109 0.185382 2.15294 -3.0148 15.4258 
181 1 7.22271 1.91873 3.95595 -3.44695 0.327505 
182 1 10.7486 -0.0868055 1.87053 -2.9173 15.6747 
179 1 9.00178 2.0158 2.20585 -3.51143 1.07619 
185 1 10.8627 1.79417 4.08261 -3.42082 1.35504 
183 1 12.3294 1.71666 2.07288 -3.45126 2.25402 
186 1 14.5001 0.108554 2.04605 -2.98789 14.0826 
187 1 16.2587 1.8969 2.12066 -3.44898 0.758273 
190 1 18.0045 0.0572766 2.26619 -3.0687 13.6427 
194 1 21.0463 -0.0415073 2.19889 -2.54557 25.7833 
191 1 19.7155 1.78905 2.16273 -3.29615 0.719908 
196 1 -0.240942 3.31788 2.22054 -2.98718 15.1803 
198 1 1.93424 3.59748 4.17342 -3.45276 1.33749 
200 1 3.71146 3.81635 2.20407 -3.48225 1.1975 
202 1 5.44183 3.69296 4.08092 -3.51501 0.364309 
204 1 7.02456 3.71693 2.21268 -3.49942 0.589846 
208 1 10.7331 3.67198 2.095 -3.49167 0.321828 
212 1 14.305 3.48048 2.00982 -3.38833 1.35757 
216 1 17.8987 3.56571 2.31859 -3.46583 1.01428 
220 1 21.4076 3.5352 2.12876 -2.97002 14.2216 
222 1 -0.0209873 6.90975 2.14413 -2.96607 14.3533 
197 1 1.6668 5.17363 2.15973 -3.48886 1.23509 
199 1 -0.226976 5.07577 4.04802 -2.99628 15.8053 
224 1 1.66166 6.89436 4.04907 -3.41465 1.10381 
226 1 3.4361 7.11663 2.20791 -3.47988 0.610575 
203 1 3.70988 5.4829 4.04515 -3.50324 0.888293 
201 1 5.37088 5.58896 2.11455 -3.41178 0.667492 
230 1 7.32568 7.32233 2.1429 -3.50063 0.632124 
228 1 5.44872 7.24004 3.69004 -3.35665 2.59254 
205 1 9.00931 5.3278 2.17978 -3.49631 1.02105 
232 1 8.94167 7.30581 3.97996 -3.48281 0.237723 
234 1 10.6463 7.17703 2.2461 -3.47349 1.10222 
209 1 12.5712 5.50017 1.99271 -3.50555 0.91362 
238 1 14.3475 7.2817 2.24729 -3.4845 0.358831 
213 1 16.0701 5.45671 2.24265 -3.53145 0.457358 
242 1 17.8893 7.19947 2.24538 -3.48728 0.609043 
217 1 19.9421 5.6487 2.20705 -3.34682 2.30716 
246 1 21.6294 7.43813 2.41494 -2.92601 12.336 
244 1 19.73 7.24956 4.14751 -3.49267 0.837343 
223 1 1.68834 8.85916 2.5085 -3.45239 1.16732 
225 1 -0.125911 8.82387 4.17821 -2.90333 10.801 
248 1 -0.0295159 10.7733 2.57581 -3.02582 13.7874 
229 1 3.71642 8.8331 3.96415 -3.43683 1.50542 
227 1 5.40428 9.1514 2.29181 -3.42474 1.18266 
252 1 3.47572 10.843 2.38617 -3.41669 1.20446 
233 1 7.21554 9.12073 3.99804 -3.51935 0.181809 
231 1 9.07316 9.09776 2.2546 -3.50151 0.532444 
260 1 10.7666 10.9325 2.12966 -3.4501 0.555838 
235 1 12.6341 9.10524 2.12082 -3.52016 0.789589 
239 1 16.1846 9.0923 2.22861 -3.51461 0.374435 
264 1 14.3794 10.8349 1.94319 -3.50326 1.32398 
268 1 18.2273 10.8317 2.27188 -3.47468 0.741436 
243 1 19.8411 8.91768 2.25915 -3.43455 0.51318 
270 1 20.012 10.7127 4.1329 -3.49114 0.750223 
249 1 1.83135 12.6554 2.17066 -3.3343 2.24473 
251 1 -0.197136 12.6022 4.24086 -2.92645 17.7928 
255 1 3.4104 12.5248 4.09902 -3.41044 1.24252 
254 1 5.47452 10.8459 3.99571 -3.48555 0.813764 
256 1 7.26412 11.0278 2.10911 -3.42045 1.63389 
253 1 5.48278 12.5622 2.28719 -3.41527 0.829023 
259 1 7.2188 12.5838 4.18812 -3.47113 0.602104 
257 1 9.15313 12.6928 2.21904 -3.46996 0.674663 
258 1 9.0318 10.9513 4.12532 -3.51411 0.276541 
261 1 12.4395 12.5746 2.19898 -3.42862 1.24272 
265 1 16.3939 12.5371 2.17021 -3.50099 0.763571 
272 1 21.6689 10.7142 2.2091 -3.05919 14.3774 
269 1 20.0581 12.6019 2.05268 -3.45007 0.518946 
274 1 0.118488 14.3289 2.51287 -2.9796 13.9738 
275 1 1.79279 15.9472 2.21921 -3.39682 2.16021 
276 1 1.87036 14.4499 4.3594 -3.37283 2.0556 
277 1 0.00610879 16.2605 4.25644 -3.00525 16.1635 
278 1 3.60756 14.3228 2.24432 -3.48367 0.320224 
281 1 3.83182 16.2265 3.97544 -3.49459 1.99111 
279 1 5.47098 16.0603 2.10488 -3.4636 0.735681 
282 1 7.23051 14.1445 2.14482 -3.49736 1.03738 
280 1 5.30348 14.1823 4.11029 -3.48421 1.41529 
286 1 10.8572 14.4806 2.24262 -3.49785 0.395746 
283 1 9.00458 16.1121 2.29009 -3.50397 0.4208 
287 1 12.5764 16.3104 2.41632 -3.47134 1.54442 
290 1 14.3891 14.2885 2.09202 -3.48057 0.927966 
291 1 16.1453 16.0845 2.40455 -3.48479 1.2723 
294 1 18.2573 14.4139 2.0167 -3.50734 1.29247 
297 1 18.1501 16.1209 3.92019 -3.47 0.577943 
295 1 20.0994 16.1239 2.07923 -3.37676 0.923345 
298 1 21.8714 14.581 1.81584 -3.01451 10.7426 
300 1 0.0376622 18.0399 2.47681 -2.94579 15.799 
302 1 1.85824 18.0717 4.10636 -3.49854 0.951673 
304 1 3.82232 18.0416 2.31294 -3.49176 1.39815 
308 1 7.25848 17.9559 2.2925 -3.47181 0.302046 
312 1 10.861 18.0456 2.24251 -3.4812 0.250755 
314 1 12.6948 18.1033 4.03657 -3.49303 0.629949 
316 1 14.4939 17.9238 2.23954 -3.41606 0.828937 
320 1 17.9867 18.125 2.35498 -3.4467 1.4651 
324 1 22.0311 17.6375 2.2018 -2.89602 11.5157 
326 1 0.18159 21.4373 2.41928 -2.51756 29.3058 
301 1 1.9068 19.7747 2.19445 -3.27748 0.911882 
303 1 -0.0110469 19.7276 4.30993 -2.94125 16.6644 
328 1 3.71122 21.3397 2.10945 -3.04023 14.2984 
307 1 3.96815 19.6362 4.2737 -3.39565 2.75758 
305 1 5.66236 19.743 2.01082 -3.40584 1.84669 
330 1 7.24984 21.5868 2.22132 -2.9832 16.7452 
329 1 5.51584 21.735 4.04466 -2.93542 20.2858 
309 1 9.10871 19.8852 2.25427 -3.48146 0.784365 
332 1 10.8947 21.8764 2.35795 -2.84794 19.8172 
313 1 12.578 19.743 2.29619 -3.47083 0.401706 
334 1 14.3592 21.4467 2.3814 -2.99584 14.2694 
317 1 16.1029 19.6361 2.45626 -3.40975 1.09914 
335 1 16.1326 21.7052 4.33802 -2.97235 10.3767 
336 1 18.0794 21.4262 2.50266 -2.9987 13.3026 
321 1 20.0379 19.7483 2.30742 -3.28746 2.01627 
338 1 21.5917 21.4994 1.95982 -2.41152 33.6411 
337 1 19.9077 21.4429 4.16812 -2.91115 17.172 
325 1 21.899 19.4111 4.02036 -2.89391 16.7077 
172 1 1.92932 0.278165 3.97787 -2.94889 14.7994 
339 1 0.554755 -0.0393458 5.82172 -2.50628 33.5336 
340 1 1.95436 1.88336 6.00836 -3.39491 0.591128 
343 1 3.55338 0.023977 5.88566 -3.02562 14.0469 
347 1 7.29266 0.0610371 6.03282 -2.96063 13.9338 
344 1 5.52123 1.78222 5.77666 -3.41758 0.996447 
180 1 9.1734 -0.0939019 3.81503 -2.91851 15.0147 
351 1 10.5843 -0.10931 6.06088 -2.89198 15.4544 
348 1 9.0202 1.87216 5.62435 -3.42263 1.78097 
184 1 12.663 0.149599 3.89433 -2.95883 14.5852 
352 1 12.4439 1.86961 5.97764 -3.37896 2.0214 
189 1 14.2593 1.91093 3.76966 -3.39493 1.17779 
188 1 16.0269 0.00715555 3.76051 -2.93342 14.5214 
355 1 14.4791 0.0300303 5.55498 -2.93651 16.4567 
356 1 16.1762 1.88871 5.68839 -3.43223 0.506559 
193 1 18.0437 1.83962 4.041 -3.43329 0.548289 
359 1 18.0308 0.0957169 5.92545 -2.95926 16.6892 
192 1 19.6538 0.0653426 4.20422 -2.91942 15.0284 
360 1 19.7549 1.86806 5.98643 -3.31738 0.48401 
363 1 21.3457 0.301037 5.85363 -2.53178 24.3552 
195 1 21.7042 1.69983 3.87332 -2.89757 20.4861 
365 1 0.0118359 3.63632 6.15634 -2.94021 14.9003 
369 1 3.63701 3.56278 5.99443 -3.45953 0.742924 
373 1 7.3001 3.60366 5.77934 -3.44533 0.863418 
206 1 8.94562 3.74877 4.07753 -3.41903 0.619343 
377 1 10.9434 3.73793 5.71533 -3.43655 1.5032 
210 1 12.6145 3.64908 3.94028 -3.50948 0.402614 
214 1 16.0621 3.53044 4.05159 -3.44766 1.04352 
381 1 14.372 3.74333 5.86936 -3.52063 0.256523 
385 1 17.9486 3.79979 5.90734 -3.5275 0.514086 
218 1 19.7945 3.61238 4.03143 -3.49014 0.360099 
389 1 21.5175 3.54654 5.81813 -3.01985 15.9803 
391 1 -0.208727 6.85234 6.21922 -2.92153 14.683 
366 1 1.77123 5.36821 5.80137 -3.41795 1.69916 
395 1 3.57948 7.28868 5.82141 -3.4626 0.642259 
207 1 7.26867 5.51367 3.8992 -3.48893 0.52227 
370 1 5.43982 5.46123 5.86652 -3.52464 0.326347 
399 1 7.21593 7.17197 5.80721 -3.483 0.38412 
211 1 10.7285 5.46211 4.07762 -3.47194 0.364838 
374 1 8.8872 5.46795 5.79026 -3.46027 0.377698 
403 1 10.7071 7.32903 5.87489 -3.51475 0.444357 
236 1 12.5319 7.19836 3.90586 -3.50539 0.676519 
378 1 12.5242 5.55683 5.81858 -3.492 0.615829 
240 1 16.1763 7.38227 3.99152 -3.49325 0.739126 
215 1 14.4178 5.39874 4.03573 -3.47135 0.599095 
407 1 14.4971 7.11845 5.84929 -3.43769 1.36282 
382 1 16.1391 5.52159 5.7283 -3.42318 0.906043 
219 1 17.9989 5.46703 3.89033 -3.50299 1.14097 
411 1 17.8139 7.26535 6.07522 -3.41888 2.07147 
386 1 19.7738 5.39873 5.82816 -3.47699 0.55477 
221 1 21.5609 5.47679 4.01405 -3.0318 15.6362 
415 1 21.7522 7.14709 5.80049 -2.99134 11.0559 
250 1 1.84467 10.7696 4.17434 -3.41283 0.888718 
392 1 1.7253 8.83962 5.91163 -3.47761 0.623619 
396 1 5.39387 8.90306 5.87812 -3.48319 0.442596 
425 1 7.08902 10.9426 6.02243 -3.46704 0.83767 
237 1 10.8878 9.08959 4.06392 -3.53679 0.601399 
400 1 8.98674 9.17671 5.79678 -3.48246 0.673187 
404 1 12.6934 9.04942 5.86208 -3.45468 0.887236 
241 1 14.2915 9.02294 4.0755 -3.50965 0.742683 
408 1 16.123 9.03229 5.86187 -3.50059 0.350503 
433 1 14.4625 10.8758 5.78469 -3.49871 0.719319 
245 1 18.0234 9.05813 4.01516 -3.48122 0.304209 
437 1 18.0692 10.822 5.71544 -3.4384 0.933207 
247 1 21.8471 8.98162 4.20528 -2.95304 10.9129 
412 1 20.0168 8.93395 6.02682 -3.42594 0.852466 
441 1 21.9485 10.7603 5.91337 -2.89634 11.0548 
417 1 -0.308461 10.4301 5.84555 -2.84015 15.1295 
418 1 1.89252 12.425 5.92978 -3.38395 1.0953 
421 1 3.60999 10.5515 5.95403 -3.50933 1.13944 
422 1 5.36017 12.5296 6.04524 -3.47355 0.44015 
263 1 10.9385 12.649 4.14375 -3.43666 0.739374 
426 1 8.93827 12.7138 5.95456 -3.50361 0.39665 
262 1 12.505 10.9253 3.91996 -3.42606 0.695089 
429 1 10.7017 10.9344 5.93457 -3.4532 0.50169 
430 1 12.6359 12.5762 5.86954 -3.49079 0.395237 
266 1 16.2875 10.7362 3.97902 -3.47062 0.345137 
267 1 14.4141 12.5341 3.95298 -3.53538 0.189826 
434 1 16.3953 12.5425 5.72829 -3.41998 0.694141 
271 1 18.0897 12.4329 3.99007 -3.3974 0.779269 
273 1 21.8614 12.6896 3.735 -2.94222 13.8108 
438 1 20.0426 12.4689 5.907 -3.45844 0.9103 
443 1 0.0227075 14.3631 6.04412 -3.00252 17.8226 
444 1 1.86036 16.2969 5.83831 -3.38648 1.51449 
447 1 3.59319 14.4086 5.81745 -3.40233 0.913568 
285 1 7.22452 16.2424 3.98236 -3.46804 0.950477 
448 1 5.32226 16.135 6.04362 -3.48099 0.895862 
451 1 7.31877 14.6032 5.98417 -3.48768 1.54458 
284 1 9.1752 14.3907 4.0814 -3.49173 0.638141 
289 1 10.8727 16.287 4.20085 -3.49661 0.400514 
452 1 9.1193 16.2255 6.08412 -3.49052 0.667682 
455 1 10.8235 14.4828 5.93651 -3.50544 0.321882 
288 1 12.7104 14.4233 4.08143 -3.49718 0.319938 
456 1 12.71 16.2835 5.8459 -3.50566 0.449232 
292 1 16.3932 14.2353 3.99465 -3.45433 0.455774 
293 1 14.4155 16.0454 4.07662 -3.44492 0.525721 
459 1 14.6254 14.1761 6.0453 -3.51356 2.16504 
460 1 16.3901 15.9865 5.65871 -3.41942 1.80799 
463 1 18.0801 14.2762 5.85821 -3.48711 0.643187 
299 1 21.9508 16.004 3.90253 -2.95137 18.2816 
296 1 20.1205 14.3022 3.88735 -3.4294 0.513934 
464 1 19.9935 15.9729 5.72874 -3.43394 0.707728 
467 1 21.8683 14.3911 5.61783 -2.93686 15.4658 
469 1 -0.0312786 17.9692 6.08036 -2.96927 17.6683 
473 1 3.66539 17.8841 6.23711 -3.44213 1.92335 
306 1 5.49694 17.91 4.12862 -3.3698 0.32305 
477 1 7.20723 17.9993 5.99903 -3.51286 0.342965 
310 1 8.987 18.0627 4.22687 -3.5024 0.526228 
481 1 10.8656 18.0781 5.83325 -3.42758 0.934273 
318 1 16.0511 17.8488 4.15173 -3.39928 1.38194 
485 1 14.4896 17.937 5.80778 -3.42129 0.487154 
489 1 18.0727 17.6274 5.83792 -3.45517 0.950334 
322 1 19.8028 17.8304 3.89159 -3.45704 1.36709 
493 1 21.6954 17.564 5.8463 -3.01544 12.8503 
327 1 2.05249 21.0861 4.09545 -2.98634 11.6083 
495 1 0.474708 21.6767 5.83198 -2.50716 47.1264 
470 1 1.91866 19.6713 6.02234 -3.43802 0.900549 
497 1 3.75098 21.5967 5.82841 -3.0084 16.586 
311 1 7.07477 19.8463 4.12617 -3.47655 1.09134 
474 1 5.46864 19.8152 6.11681 -3.42548 0.754689 
499 1 7.05453 21.6041 5.96945 -3.00024 13.3793 
331 1 8.89829 21.3931 4.2642 -3.0181 13.4069 
315 1 10.8131 19.7795 4.24748 -3.40938 0.68793 
478 1 8.94535 19.6621 5.95448 -3.36026 0.454984 
333 1 12.5711 21.6851 4.18207 -2.97391 16.7873 
501 1 10.6301 21.5224 5.89984 -2.94256 16.1094 
482 1 12.6671 19.816 6.01345 -3.50316 0.386758 
319 1 14.4258 19.9468 4.17035 -3.39513 1.01003 
503 1 14.3991 21.8576 6.30358 -2.84224 13.5309 
486 1 16.2511 19.651 5.93258 -3.4765 0.383236 
323 1 17.9836 19.7293 4.09526 -3.39747 0.693189 
505 1 18.0951 21.6516 5.84643 -2.96082 11.3207 
490 1 19.6607 19.4682 5.90302 -3.4106 2.4707 
507 1 21.5974 20.9483 5.79658 -2.52391 19.4988 
341 1 2.15514 -0.114091 7.82266 -2.94568 15.5346 
342 1 0.210916 1.58988 7.91457 -2.92804 14.5403 
509 1 1.92107 1.91486 9.63032 -3.33991 0.920137 
508 1 0.320006 0.288321 9.92052 -2.47592 25.2853 
346 1 3.82374 1.72276 7.70017 -3.44644 1.34914 
512 1 3.78558 -0.12466 9.79385 -2.98245 14.309 
513 1 5.40601 2.01585 9.65725 -3.44061 1.1398 
345 1 5.28065 -0.204872 7.6489 -2.9563 14.7537 
350 1 6.85657 1.8769 7.72225 -3.43985 2.79987 
516 1 7.09969 -0.0435984 9.43518 -2.98908 14.1884 
349 1 8.92423 0.34357 7.65531 -2.9812 13.3901 
354 1 10.8529 1.93454 7.677 -3.42856 0.947423 
520 1 10.8231 0.0515548 9.51146 -3.00987 14.1639 
517 1 8.91934 1.83857 9.58209 -3.42692 0.58338 
353 1 12.6776 0.0973116 7.61588 -2.97383 15.3054 
357 1 16.1899 0.15128 7.58615 -2.98932 16.6637 
358 1 14.3714 1.85367 7.57068 -3.45773 0.505676 
362 1 17.9725 2.0347 7.86008 -3.46364 0.647082 
361 1 19.6421 0.0865438 7.79866 -2.95991 17.3517 
529 1 19.5188 1.97977 9.80267 -3.39817 1.74221 
364 1 21.5836 1.93306 7.77906 -2.95786 16.3705 
532 1 21.2377 0.205236 9.55992 -2.59205 22.5951 
367 1 1.88753 3.63527 7.9393 -3.41825 0.664922 
538 1 3.60529 3.64698 9.67263 -3.40831 0.452598 
371 1 5.21579 3.6556 7.71283 -3.43107 1.00903 
375 1 8.85901 3.61818 7.63828 -3.53309 0.553597 
379 1 12.6886 3.80502 7.70724 -3.50577 0.98785 
383 1 16.1173 3.73784 7.68664 -3.52319 0.304408 
387 1 19.6635 3.73831 7.83433 -3.49063 0.587524 
558 1 21.462 3.41541 9.71067 -2.95989 13.2811 
368 1 0.257003 5.24602 8.10175 -2.97126 12.9896 
393 1 1.76217 7.26796 7.92566 -3.41828 1.29175 
560 1 0.216356 7.33878 9.74341 -2.92994 12.5765 
535 1 2.0964 5.47207 9.73837 -3.34656 1.27594 
372 1 3.53027 5.56852 7.65891 -3.50205 1.20281 
397 1 5.28085 7.14964 7.65784 -3.45647 0.561436 
539 1 5.23921 5.47871 9.53581 -3.54411 0.847729 
376 1 7.08316 5.35464 7.7417 -3.51113 0.507719 
568 1 7.19014 7.21831 9.58974 -3.48483 0.358489 
401 1 8.92745 7.15916 7.60954 -3.49831 0.688903 
380 1 10.7559 5.43115 7.76139 -3.53106 0.280023 
405 1 12.5107 7.23731 7.95256 -3.42382 1.24955 
384 1 14.5279 5.59964 7.76817 -3.46245 1.21725 
409 1 16.1447 7.31548 7.82045 -3.43106 0.845608 
551 1 16.1366 5.37126 9.72091 -3.43077 1.1479 
388 1 17.8877 5.5752 7.80047 -3.49928 0.894212 
390 1 21.6597 5.27467 7.6136 -3.00013 15.6242 
413 1 19.9572 7.03738 7.81329 -3.46072 0.863325 
584 1 21.8162 6.81521 9.70477 -2.89349 14.0432 
394 1 -0.339568 8.63352 7.93627 -2.85088 18.5077 
561 1 1.82982 9.08135 9.5769 -3.34974 0.942051 
398 1 3.4845 8.93932 7.80838 -3.49582 0.648564 
590 1 3.50024 10.7854 9.72502 -3.47927 0.232831 
402 1 7.01922 8.99407 7.80771 -3.43652 1.04734 
423 1 5.4354 10.8727 8.01344 -3.40681 1.49132 
406 1 10.7524 8.92572 7.73607 -3.48374 0.746797 
569 1 9.14295 9.16447 9.59855 -3.46699 1.59208 
598 1 10.872 10.926 9.55246 -3.45892 0.875649 
427 1 8.97332 10.7301 7.68192 -3.50039 1.0662 
431 1 12.3427 10.88 7.66229 -3.44011 2.16629 
410 1 14.0732 9.01812 7.72235 -3.42222 2.88283 
435 1 16.2883 10.7273 7.65923 -3.49311 0.287297 
602 1 14.4288 10.694 9.52294 -3.46236 0.76542 
414 1 18.1771 8.92855 7.68392 -3.47644 0.655771 
416 1 21.6795 8.79355 7.75564 -2.95544 14.3952 
439 1 19.9988 10.7379 7.68186 -3.43347 0.719426 
610 1 21.7962 10.9438 9.65284 -2.94871 13.4257 
420 1 -0.0866794 12.4982 7.85864 -2.93921 16.9393 
587 1 1.55245 12.5709 9.70966 -3.46271 1.10319 
419 1 1.69278 10.7663 7.61042 -3.43016 1.76627 
586 1 -4.10252e-05 10.5814 9.52646 -2.9721 13.2572 
424 1 3.5498 12.3818 7.86669 -3.45495 0.960536 
428 1 7.1648 12.6951 7.8239 -3.51275 0.539043 
432 1 10.6874 12.753 7.75761 -3.50078 0.682416 
436 1 14.5335 12.4253 7.82521 -3.45303 1.15419 
440 1 18.1971 12.3508 7.68121 -3.48005 0.993722 
442 1 21.8264 12.9559 7.68192 -2.91418 13.0018 
445 1 1.84531 14.2687 7.65738 -3.45142 0.85353 
446 1 0.346532 16.2195 7.63716 -2.94543 11.6615 
613 1 1.64755 16.0088 9.64285 -3.43283 1.32338 
612 1 -0.184551 14.33 9.68302 -2.91539 18.917 
450 1 3.5301 16.1085 7.78435 -3.49428 0.294388 
616 1 3.41755 14.2296 9.46271 -3.43354 1.42161 
449 1 5.30794 14.2632 7.7488 -3.50329 0.630363 
454 1 7.20412 16.3005 7.71317 -3.45087 0.999016 
453 1 9.03839 14.5327 8.02394 -3.43057 1.39196 
458 1 11.0089 16.3186 7.84201 -3.54164 0.870307 
457 1 12.6087 14.364 7.65195 -3.50013 0.908003 
462 1 14.4785 16.2506 7.7471 -3.45844 1.04448 
461 1 16.4957 14.4415 7.79046 -3.51721 1.3078 
466 1 18.3769 16.0351 7.73101 -3.4049 0.992177 
465 1 19.8039 14.2288 7.64959 -3.34703 2.26872 
468 1 21.7314 16.0574 7.848 -2.99422 13.7022 
471 1 1.86859 17.9589 7.90703 -3.38854 0.686765 
638 1 0.138919 18.0427 9.58809 -2.97321 14.9869 
642 1 3.66058 17.9812 9.60987 -3.52012 0.32537 
476 1 3.70161 19.9318 7.83525 -3.38071 0.915142 
475 1 5.47618 18.067 7.94015 -3.46774 0.76038 
479 1 9.08023 17.8745 7.88057 -3.4956 0.470382 
650 1 10.9406 17.85 9.74537 -3.48411 0.547984 
483 1 12.8617 18.0327 7.83971 -3.46753 0.895185 
487 1 16.3618 17.7053 7.67691 -3.48841 0.743276 
491 1 20.0874 17.771 7.76067 -3.42112 0.701814 
494 1 21.845 19.5859 7.59931 -2.86119 16.8171 
472 1 0.0868022 20.1072 7.85399 -2.88123 13.5349 
496 1 2.26197 21.6492 7.83305 -2.82968 15.0549 
664 1 0.299657 21.5446 10.2299 -2.38043 31.3912 
666 1 4.03999 21.649 9.70796 -2.93036 14.6396 
498 1 5.76202 21.7541 7.97165 -2.95269 15.0872 
480 1 7.31139 19.7422 7.93332 -3.45147 0.594109 
668 1 7.47955 21.5717 9.63222 -3.02839 10.208 
643 1 5.4414 19.763 9.70081 -3.44243 0.900908 
500 1 9.05785 21.2999 7.60786 -2.99928 13.5109 
484 1 10.8518 19.5598 7.78788 -3.50478 0.910045 
502 1 12.5271 21.6382 7.95899 -2.91846 17.355 
651 1 12.5463 19.6571 9.7817 -3.42409 0.864811 
488 1 14.654 19.7265 7.777 -3.39996 1.27062 
504 1 16.2372 21.4586 7.68919 -2.93721 15.1054 
492 1 18.0722 19.4764 7.65456 -3.45943 0.799475 
674 1 18.1578 21.3895 9.25353 -2.97717 13.9657 
506 1 20.1123 21.4034 7.72291 -2.93516 16.4665 
659 1 19.9672 19.6618 9.4668 -3.28164 1.23308 
510 1 2.01852 -0.00896318 11.6359 -2.93755 18.1329 
511 1 0.323134 2.06219 11.8942 -2.98418 12.755 
515 1 3.60425 1.93272 11.51 -3.4729 1.02684 
514 1 5.78142 0.126872 11.4767 -2.99463 11.59 
519 1 7.12005 2.00424 11.3976 -3.3466 0.981177 
518 1 8.77984 0.0870113 11.2022 -2.98443 12.3146 
523 1 10.5806 1.75246 11.5783 -3.39835 1.34963 
521 1 12.6004 1.94387 9.47543 -3.47501 0.718223 
522 1 12.4374 -0.0405061 11.4668 -2.97142 18.5173 
524 1 14.2723 0.048262 9.60285 -2.98239 17.3911 
525 1 16.1145 1.91854 9.539 -3.49942 0.225062 
526 1 15.975 0.0593454 11.3487 -2.97875 15.3803 
527 1 14.2661 1.79823 11.4502 -3.48873 0.183414 
528 1 17.8536 0.103209 9.76273 -3.02111 13.3398 
531 1 17.7891 1.83537 11.5201 -3.46397 0.578826 
530 1 19.7119 0.0211234 11.452 -2.92668 17.1061 
533 1 21.6967 1.8713 11.3514 -2.89785 15.1784 
534 1 0.0432334 3.66034 9.73725 -2.9639 16.8292 
536 1 1.98314 3.68493 11.5041 -3.40441 0.983343 
540 1 5.51176 3.75577 11.627 -3.46778 0.772143 
542 1 7.15819 3.70589 9.53629 -3.49566 0.334879 
546 1 10.677 3.50692 9.59683 -3.50047 0.717532 
544 1 8.86558 3.55801 11.4751 -3.47501 0.674018 
548 1 12.392 3.55087 11.5532 -3.53806 0.873926 
550 1 14.3871 3.62105 9.46887 -3.44491 0.612809 
552 1 15.9931 3.60274 11.5169 -3.43221 1.0463 
554 1 17.8889 3.78924 9.74227 -3.49856 0.906171 
556 1 19.7956 3.55736 11.6139 -3.46668 1.13712 
537 1 0.447798 5.61438 11.3881 -3.01884 11.8372 
562 1 2.02227 7.3345 11.474 -3.39332 1.06544 
564 1 3.56975 7.22164 9.72834 -3.4101 0.742565 
541 1 3.66694 5.46798 11.6787 -3.51674 0.882771 
545 1 7.19642 5.36965 11.3697 -3.45021 0.740103 
566 1 5.65687 7.3651 11.4937 -3.49752 1.77368 
572 1 10.84 7.17826 9.60283 -3.43928 0.499223 
543 1 9.01802 5.44121 9.55289 -3.4745 0.406692 
549 1 10.6272 5.43071 11.342 -3.38462 1.77819 
570 1 8.97889 6.97361 11.5269 -3.41275 1.32005 
547 1 12.6404 5.29351 9.70615 -3.45631 0.929565 
574 1 12.4745 6.97064 11.4933 -3.45799 1.03221 
576 1 14.4854 7.10299 9.70383 -3.46114 1.25249 
553 1 14.2332 5.2209 11.4077 -3.36952 1.60194 
578 1 16.335 7.32986 11.8238 -3.36852 2.9672 
580 1 18.2081 7.26288 9.63912 -3.50093 0.402683 
557 1 18.295 5.66177 11.5144 -3.4257 2.78302 
559 1 21.8543 5.08202 11.5998 -3.02304 12.9527 
555 1 20.0319 5.3656 9.69465 -3.37272 0.7635 
582 1 20.1546 7.19514 11.4747 -3.44421 0.570421 
563 1 -0.0726299 8.95926 11.4018 -2.92415 15.7821 
588 1 1.70533 10.6576 11.4776 -3.4599 0.987004 
567 1 3.72606 9.0599 11.5248 -3.47678 0.480609 
594 1 7.16151 10.8994 9.6645 -3.47912 0.351814 
565 1 5.50015 9.01375 9.57462 -3.42315 0.831712 
571 1 7.42845 9.14913 11.7017 -3.43781 1.71974 
592 1 5.40825 10.8368 11.7083 -3.48385 0.56083 
575 1 10.7148 8.95113 11.596 -3.47876 0.524102 
596 1 9.11742 10.7614 11.5627 -3.4379 0.384172 
573 1 12.5918 8.94561 9.78325 -3.49559 0.953029 
600 1 12.7014 10.8413 11.5052 -3.48298 0.483809 
577 1 16.226 9.05861 9.60848 -3.46014 0.430276 
579 1 14.4049 9.03948 11.6795 -3.44871 1.07452 
606 1 18.2052 10.7418 9.62579 -3.50134 0.211439 
583 1 18.1879 9.06066 11.4166 -3.48963 0.591913 
581 1 20.159 9.09895 9.69862 -3.43524 1.61224 
585 1 21.8809 9.09683 11.4889 -2.95438 14.7136 
608 1 19.9533 10.763 11.5636 -3.42774 0.336458 
589 1 -0.160647 12.7965 11.7157 -2.90269 15.2277 
593 1 3.52498 12.5133 11.6636 -3.49898 0.452532 
591 1 5.22002 12.6182 9.7262 -3.48597 0.782718 
597 1 7.31212 12.7482 11.5684 -3.47082 1.11027 
595 1 8.91064 12.6429 9.78385 -3.46841 1.16903 
601 1 10.8809 12.6407 11.283 -3.43798 1.86375 
599 1 12.6523 12.6911 9.49228 -3.48601 0.610573 
603 1 16.3345 12.5367 9.5177 -3.49738 0.393736 
604 1 16.2376 10.7123 11.4448 -3.49998 0.701789 
605 1 14.4859 12.573 11.4367 -3.4676 0.501814 
609 1 18.1495 12.4578 11.6447 -3.50716 0.661596 
607 1 19.9799 12.4799 9.72752 -3.43417 0.631673 
611 1 21.7573 12.4611 11.6695 -3.00094 14.5368 
614 1 1.6708 14.4082 11.6529 -3.44142 0.499912 
615 1 -0.143374 16.1781 11.5376 -2.97696 18.0451 
619 1 3.50108 16.0391 11.2998 -3.44761 1.41518 
620 1 7.2496 14.523 9.5999 -3.46093 0.742376 
617 1 5.32507 16.0095 9.57777 -3.47828 1.04081 
618 1 5.40119 14.514 11.434 -3.47388 1.21211 
623 1 7.36865 16.2142 11.5064 -3.46144 1.06498 
624 1 10.9638 14.4771 9.5667 -3.48499 0.823882 
622 1 9.0828 14.3681 11.6383 -3.46553 0.607107 
621 1 9.00694 16.1959 9.6498 -3.42951 0.472212 
627 1 10.8452 16.0037 11.5363 -3.49604 0.530681 
625 1 12.8897 16.0995 9.62454 -3.49992 1.1818 
626 1 12.6097 14.2942 11.5151 -3.48355 0.657509 
629 1 16.3675 16.185 9.55969 -3.48015 0.595401 
628 1 14.5849 14.2681 9.60878 -3.47941 0.634692 
630 1 16.4161 14.4576 11.2848 -3.45526 2.36163 
631 1 14.5091 16.3024 11.5898 -3.49569 1.4401 
632 1 18.1859 14.3541 9.58085 -3.49116 0.454837 
635 1 18.2028 16.0884 11.7036 -3.4643 0.965954 
633 1 20.2533 16.0601 9.82053 -3.37225 2.33174 
636 1 21.9026 14.1037 9.88688 -2.9473 12.8864 
634 1 19.9303 14.1665 11.5096 -3.47231 1.06358 
637 1 22.0118 15.9486 11.5659 -2.86913 13.5993 
640 1 1.86518 17.7877 11.4935 -3.4896 0.998406 
641 1 -0.0533811 19.564 11.3417 -2.8543 14.7402 
646 1 7.20852 17.871 9.62204 -3.48629 0.730871 
644 1 5.43354 17.7694 11.3833 -3.5116 0.923875 
648 1 9.04355 17.9796 11.6245 -3.50662 0.327898 
652 1 12.6321 17.9004 11.4225 -3.45839 0.778178 
654 1 14.4918 17.954 9.6364 -3.46395 0.463753 
656 1 16.4284 17.9035 11.5097 -3.50266 0.61168 